# vtk DataFile Version 3.1 
Canion de trifunac
ASCII 
DATASET UNSTRUCTURED_GRID 
POINTS              131 float
 -1.250000  0.000000  0.000000 
 -1.000000  0.000000  0.000000 
 1.000000  0.000000  0.000000 
 1.250000  0.000000  0.000000 
 1.250000  2.500000  0.000000 
 -1.250000  2.500000  0.000000 
 -1.125000  0.000000  0.000000 
 1.125000  0.000000  0.000000 
 1.250000  0.250000  0.000000 
 1.250000  0.500000  0.000000 
 1.250000  0.750000  0.000000 
 1.250000  1.000000  0.000000 
 1.250000  1.250000  0.000000 
 1.250000  1.500000  0.000000 
 1.250000  1.750000  0.000000 
 1.250000  2.000000  0.000000 
 1.250000  2.250000  0.000000 
 1.000000  2.500000  0.000000 
 0.750000  2.500000  0.000000 
 0.500000  2.500000  0.000000 
 0.250000  2.500000  0.000000 
 0.000000  2.500000  0.000000 
 -0.250000  2.500000  0.000000 
 -0.500000  2.500000  0.000000 
 -0.750000  2.500000  0.000000 
 -1.000000  2.500000  0.000000 
 -1.250000  2.250000  0.000000 
 -1.250000  2.000000  0.000000 
 -1.250000  1.750000  0.000000 
 -1.250000  1.500000  0.000000 
 -1.250000  1.250000  0.000000 
 -1.250000  1.000000  0.000000 
 -1.250000  0.750000  0.000000 
 -1.250000  0.500000  0.000000 
 -1.250000  0.250000  0.000000 
 0.974900  0.222500  0.000000 
 0.901000  0.433900  0.000000 
 0.781800  0.623500  0.000000 
 0.623500  0.781800  0.000000 
 0.433900  0.901000  0.000000 
 0.222500  0.974900  0.000000 
 0.000000  1.000000  0.000000 
 -0.222500  0.974900  0.000000 
 -0.433900  0.901000  0.000000 
 -0.623500  0.781800  0.000000 
 -0.781800  0.623500  0.000000 
 -0.901000  0.433900  0.000000 
 -0.974900  0.222500  0.000000 
 0.070300  1.866400  0.000000 
 -0.527300  1.598000  0.000000 
 0.641000  1.436100  0.000000 
 0.591900  1.978600  0.000000 
 -0.789100  1.277100  0.000000 
 -0.240100  2.001000  0.000000 
 -0.196900  1.321500  0.000000 
 -0.769100  1.988500  0.000000 
 0.263100  1.396100  0.000000 
 0.756200  1.018900  0.000000 
 0.302600  2.168800  0.000000 
 -0.828400  1.598700  0.000000 
 -0.412600  1.271000  0.000000 
 -0.921600  0.902900  0.000000 
 0.906600  1.684200  0.000000 
 0.512400  1.626200  0.000000 
 0.908200  2.099200  0.000000 
 -0.468000  2.142400  0.000000 
 -0.122400  1.775600  0.000000 
 0.481100  1.196900  0.000000 
 1.020000  1.267900  0.000000 
 0.031000  2.120300  0.000000 
 0.986800  0.794800  0.000000 
 0.574600  2.251800  0.000000 
 -1.016400  1.769600  0.000000 
 0.025700  1.365400  0.000000 
 -0.454700  1.872300  0.000000 
 -0.994300  2.123600  0.000000 
 -0.669900  0.994100  0.000000 
 -1.007800  1.354000  0.000000 
 -0.039500  1.999300  0.000000 
 -1.015000  0.659800  0.000000 
 0.995800  1.908700  0.000000 
 -0.025900  1.575300  0.000000 
 -0.647300  1.757600  0.000000 
 -0.576100  1.386600  0.000000 
 -0.199200  1.136600  0.000000 
 -0.173600  2.262300  0.000000 
 -0.442400  1.440600  0.000000 
 0.377400  1.894200  0.000000 
 -0.659800  2.235700  0.000000 
 1.046800  0.597800  0.000000 
 -1.049300  1.059500  0.000000 
 0.241300  1.671500  0.000000 
 -0.335600  1.692300  0.000000 
 0.248300  1.177500  0.000000 
 0.373900  2.297800  0.000000 
 0.747800  1.289500  0.000000 
 1.005100  1.027700  0.000000 
 0.695800  1.586400  0.000000 
 -1.114800  0.146300  0.000000 
 1.115600  0.144600  0.000000 
 0.480000  1.418400  0.000000 
 1.090000  0.357800  0.000000 
 -1.082700  0.374000  0.000000 
 0.773100  0.861600  0.000000 
 1.043300  1.502200  0.000000 
 -1.088200  1.977000  0.000000 
 -1.098200  1.541900  0.000000 
 -0.421500  1.078700  0.000000 
 0.466600  2.062200  0.000000 
 0.821700  2.292300  0.000000 
 0.129400  2.278800  0.000000 
 1.039400  2.293500  0.000000 
 -0.679900  1.461700  0.000000 
 -0.852300  0.790800  0.000000 
 0.858400  1.530800  0.000000 
 -1.058900  0.842600  0.000000 
 -0.608100  1.242500  0.000000 
 -0.249900  1.507000  0.000000 
 1.053000  2.139300  0.000000 
 -0.007200  2.355600  0.000000 
 -0.549500  2.001800  0.000000 
 -0.865600  1.058700  0.000000 
 0.782900  1.804800  0.000000 
 0.198900  2.007500  0.000000 
 1.045200  1.712200  0.000000 
 -0.382400  2.283200  0.000000 
 -1.034400  2.367800  0.000000 
 0.021100  1.168200  0.000000 
 0.716600  2.031700  0.000000 
 0.558000  1.829700  0.000000 
 -0.867100  2.309200  0.000000 

CELLS              106              530
 4  96  70  10  11 
 4  71  109  18  19 
 4  93  56  73  127 
 4  48  78  53  66 
 4  85  53  78  69 
 4  66  53  74  92 
 4  117  54  73  81 
 4  95  57  96  68 
 4  63  100  50  97 
 4  100  56  93  67 
 4  12  13  104  68 
 4  67  93  40  39 
 4  77  90  121  52 
 4  23  88  65  125 
 4  113  61  115  79 
 4  28  72  105  27 
 4  123  58  110  69 
 4  30  77  106  29 
 4  59  82  55  72 
 4  122  80  64  128 
 4  127  84  42  41 
 4  100  67  95  50 
 4  111  17  18  109 
 4  70  37  36  89 
 4  91  63  129  87 
 4  107  76  44  43 
 4  113  79  46  45 
 4  127  73  54  84 
 4  87  129  51  108 
 4  96  57  103  70 
 4  80  124  14  15 
 4  75  26  27  105 
 4  72  55  75  105 
 4  99  8  101  35 
 4  98  47  102  34 
 4  74  120  55  82 
 4  82  49  92  74 
 4  73  56  91  81 
 4  94  58  108  71 
 4  77  59  72  106 
 4  66  81  91  48 
 4  70  89  9  10 
 4  70  103  38  37 
 4  76  121  61  113 
 4  13  14  124  104 
 4  71  108  51  128 
 4  53  65  120  74 
 4  77  30  31  90 
 4  85  69  110  119 
 4  55  120  65  88 
 4  119  110  20  21 
 4  17  111  16  4 
 4  69  78  48  123 
 4  76  107  60  116 
 4  33  79  115  32 
 4  52  112  59  77 
 4  39  57  95  67 
 4  49  86  117  92 
 4  115  61  121  90 
 4  64  80  15  118 
 4  71  19  20  94 
 4  47  98  6  1 
 4  35  2  7  99 
 4  55  88  130  75 
 4  86  83  116  60 
 4  68  96  11  12 
 4  49  82  59  112 
 4  89  36  35  101 
 4  79  102  47  46 
 4  79  33  34  102 
 4  89  101  8  9 
 4  91  87  123  48 
 4  116  52  121  76 
 4  23  125  85  22 
 4  21  22  85  119 
 4  72  28  29  106 
 4  84  107  43  42 
 4  39  38  103  57 
 4  62  124  80  122 
 4  116  83  112  52 
 4  86  49  112  83 
 4  90  31  32  115 
 4  25  5  26  126 
 4  63  91  56  100 
 4  76  113  45  44 
 4  107  84  54  60 
 4  117  86  60  54 
 4  53  85  125  65 
 4  23  24  130  88 
 4  41  40  93  127 
 4  108  58  123  87 
 4  81  66  92  117 
 4  95  68  104  114 
 4  58  94  20  110 
 4  114  104  124  62 
 4  122  97  114  62 
 4  26  75  130  126 
 4  24  25  126  130 
 4  95  114  97  50 
 4  109  64  118  111 
 4  122  129  63  97 
 4  15  16  111  118 
 4  71  128  64  109 
 4  128  51  129  122 
 4  98  34  0  6 
 4  3  8  99  7 

CELL_TYPES 106
 10 
 10 
 10 
 10 
 10 
 10 
 10 
 10 
 10 
 10 
 10 
 10 
 10 
 10 
 10 
 10 
 10 
 10 
 10 
 10 
 10 
 10 
 10 
 10 
 10 
 10 
 10 
 10 
 10 
 10 
 10 
 10 
 10 
 10 
 10 
 10 
 10 
 10 
 10 
 10 
 10 
 10 
 10 
 10 
 10 
 10 
 10 
 10 
 10 
 10 
 10 
 10 
 10 
 10 
 10 
 10 
 10 
 10 
 10 
 10 
 10 
 10 
 10 
 10 
 10 
 10 
 10 
 10 
 10 
 10 
 10 
 10 
 10 
 10 
 10 
 10 
 10 
 10 
 10 
 10 
 10 
 10 
 10 
 10 
 10 
 10 
 10 
 10 
 10 
 10 
 10 
 10 
 10 
 10 
 10 
 10 
 10 
 10 
 10 
 10 
 10 
 10 
 10 
 10 
 10 
 10 

POINT_DATA              131
VECTORS DISPLACEMENT float 
 0.000000  0.000000  -0.000000 
 0.000000  0.000000  -0.000000 
 0.000000  0.000000  -0.000000 
 0.000000  0.000000  -0.000000 
 0.000000  0.000000  -0.000000 
 0.000000  0.000000  -0.000000 
 0.000000  0.000000  -0.000000 
 0.000000  0.000000  -0.000000 
 0.000000  0.000000  -0.000000 
 0.000000  0.000000  -0.000000 
 0.000000  0.000000  0.000000 
 0.000000  0.000000  0.000000 
 0.000000  0.000000  0.000000 
 0.000000  0.000000  0.000000 
 0.000000  0.000000  0.000000 
 0.000000  0.000000  0.000000 
 0.000000  0.000000  -0.000000 
 0.000000  0.000000  -0.000000 
 0.000000  0.000000  -0.000000 
 0.000000  0.000000  -0.000000 
 0.000000  0.000000  -0.000000 
 0.000000  0.000000  -0.000000 
 0.000000  0.000000  -0.000000 
 0.000000  0.000000  -0.000000 
 0.000000  0.000000  -0.000000 
 0.000000  0.000000  -0.000000 
 0.000000  0.000000  -0.000000 
 0.000000  0.000000  0.000000 
 0.000000  0.000000  0.000000 
 0.000000  0.000000  0.000000 
 0.000000  0.000000  0.000000 
 0.000000  0.000000  0.000000 
 0.000000  0.000000  0.000000 
 0.000000  0.000000  -0.000000 
 0.000000  0.000000  -0.000000 
 0.000000  0.000000  -0.000000 
 0.000000  0.000000  -0.000000 
 0.000000  0.000000  0.000000 
 0.000000  0.000000  0.000000 
 0.000000  0.000000  0.000000 
 0.000000  0.000000  0.000000 
 0.000000  0.000000  0.000000 
 0.000000  0.000000  0.000000 
 0.000000  0.000000  0.000000 
 0.000000  0.000000  0.000000 
 0.000000  0.000000  0.000000 
 0.000000  0.000000  -0.000000 
 0.000000  0.000000  -0.000000 
 0.000000  0.000000  0.000000 
 0.000000  0.000000  0.000000 
 0.000000  0.000000  0.000000 
 0.000000  0.000000  0.000000 
 0.000000  0.000000  0.000000 
 0.000000  0.000000  0.000000 
 0.000000  0.000000  0.000000 
 0.000000  0.000000  0.000000 
 0.000000  0.000000  0.000000 
 0.000000  0.000000  0.000000 
 0.000000  0.000000  0.000000 
 0.000000  0.000000  0.000000 
 0.000000  0.000000  0.000000 
 0.000000  0.000000  0.000000 
 0.000000  0.000000  0.000000 
 0.000000  0.000000  0.000000 
 0.000000  0.000000  0.000000 
 0.000000  0.000000  0.000000 
 0.000000  0.000000  0.000000 
 0.000000  0.000000  0.000000 
 0.000000  0.000000  0.000000 
 0.000000  0.000000  0.000000 
 0.000000  0.000000  0.000000 
 0.000000  0.000000  -0.000000 
 0.000000  0.000000  0.000000 
 0.000000  0.000000  0.000000 
 0.000000  0.000000  0.000000 
 0.000000  0.000000  0.000000 
 0.000000  0.000000  0.000000 
 0.000000  0.000000  0.000000 
 0.000000  0.000000  0.000000 
 0.000000  0.000000  -0.000000 
 0.000000  0.000000  0.000000 
 0.000000  0.000000  0.000000 
 0.000000  0.000000  0.000000 
 0.000000  0.000000  0.000000 
 0.000000  0.000000  0.000000 
 0.000000  0.000000  -0.000000 
 0.000000  0.000000  0.000000 
 0.000000  0.000000  0.000000 
 0.000000  0.000000  -0.000000 
 0.000000  0.000000  -0.000000 
 0.000000  0.000000  0.000000 
 0.000000  0.000000  0.000000 
 0.000000  0.000000  0.000000 
 0.000000  0.000000  0.000000 
 0.000000  0.000000  -0.000000 
 0.000000  0.000000  0.000000 
 0.000000  0.000000  0.000000 
 0.000000  0.000000  0.000000 
 0.000000  0.000000  -0.000000 
 0.000000  0.000000  -0.000000 
 0.000000  0.000000  0.000000 
 0.000000  0.000000  -0.000000 
 0.000000  0.000000  -0.000000 
 0.000000  0.000000  0.000000 
 0.000000  0.000000  0.000000 
 0.000000  0.000000  0.000000 
 0.000000  0.000000  0.000000 
 0.000000  0.000000  0.000000 
 0.000000  0.000000  0.000000 
 0.000000  0.000000  -0.000000 
 0.000000  0.000000  -0.000000 
 0.000000  0.000000  -0.000000 
 0.000000  0.000000  0.000000 
 0.000000  0.000000  0.000000 
 0.000000  0.000000  0.000000 
 0.000000  0.000000  0.000000 
 0.000000  0.000000  0.000000 
 0.000000  0.000000  0.000000 
 0.000000  0.000000  0.000000 
 0.000000  0.000000  -0.000000 
 0.000000  0.000000  0.000000 
 0.000000  0.000000  0.000000 
 0.000000  0.000000  0.000000 
 0.000000  0.000000  0.000000 
 0.000000  0.000000  0.000000 
 0.000000  0.000000  -0.000000 
 0.000000  0.000000  -0.000000 
 0.000000  0.000000  0.000000 
 0.000000  0.000000  0.000000 
 0.000000  0.000000  0.000000 
 0.000000  0.000000  -0.000000 

