# vtk DataFile Version 3.1 
Canion de trifunac
ASCII 
DATASET UNSTRUCTURED_GRID 
POINTS              2601 float
 -2.500000  0.000000  0.000000 
 2.500000  0.000000  0.000000 
 2.500000  5.000000  0.000000 
 -2.500000  5.000000  0.000000 
 -2.400000  0.000000  0.000000 
 -2.300000  0.000000  0.000000 
 -2.200000  0.000000  0.000000 
 -2.100000  0.000000  0.000000 
 -2.000000  0.000000  0.000000 
 -1.900000  0.000000  0.000000 
 -1.800000  0.000000  0.000000 
 -1.700000  0.000000  0.000000 
 -1.600000  0.000000  0.000000 
 -1.500000  0.000000  0.000000 
 -1.400000  0.000000  0.000000 
 -1.300000  0.000000  0.000000 
 -1.200000  0.000000  0.000000 
 -1.100000  0.000000  0.000000 
 -1.000000  0.000000  0.000000 
 -0.900000  0.000000  0.000000 
 -0.800000  0.000000  0.000000 
 -0.700000  0.000000  0.000000 
 -0.600000  0.000000  0.000000 
 -0.500000  0.000000  0.000000 
 -0.400000  0.000000  0.000000 
 -0.300000  0.000000  0.000000 
 -0.200000  0.000000  0.000000 
 -0.100000  0.000000  0.000000 
 -0.000000  0.000000  0.000000 
 0.100000  0.000000  0.000000 
 0.200000  0.000000  0.000000 
 0.300000  0.000000  0.000000 
 0.400000  0.000000  0.000000 
 0.500000  0.000000  0.000000 
 0.600000  0.000000  0.000000 
 0.700000  0.000000  0.000000 
 0.800000  0.000000  0.000000 
 0.900000  0.000000  0.000000 
 1.000000  0.000000  0.000000 
 1.100000  0.000000  0.000000 
 1.200000  0.000000  0.000000 
 1.300000  0.000000  0.000000 
 1.400000  0.000000  0.000000 
 1.500000  0.000000  0.000000 
 1.600000  0.000000  0.000000 
 1.700000  0.000000  0.000000 
 1.800000  0.000000  0.000000 
 1.900000  0.000000  0.000000 
 2.000000  0.000000  0.000000 
 2.100000  0.000000  0.000000 
 2.200000  0.000000  0.000000 
 2.300000  0.000000  0.000000 
 2.400000  0.000000  0.000000 
 2.500000  0.100000  0.000000 
 2.500000  0.200000  0.000000 
 2.500000  0.300000  0.000000 
 2.500000  0.400000  0.000000 
 2.500000  0.500000  0.000000 
 2.500000  0.600000  0.000000 
 2.500000  0.700000  0.000000 
 2.500000  0.800000  0.000000 
 2.500000  0.900000  0.000000 
 2.500000  1.000000  0.000000 
 2.500000  1.100000  0.000000 
 2.500000  1.200000  0.000000 
 2.500000  1.300000  0.000000 
 2.500000  1.400000  0.000000 
 2.500000  1.500000  0.000000 
 2.500000  1.600000  0.000000 
 2.500000  1.700000  0.000000 
 2.500000  1.800000  0.000000 
 2.500000  1.900000  0.000000 
 2.500000  2.000000  0.000000 
 2.500000  2.100000  0.000000 
 2.500000  2.200000  0.000000 
 2.500000  2.300000  0.000000 
 2.500000  2.400000  0.000000 
 2.500000  2.500000  0.000000 
 2.500000  2.600000  0.000000 
 2.500000  2.700000  0.000000 
 2.500000  2.800000  0.000000 
 2.500000  2.900000  0.000000 
 2.500000  3.000000  0.000000 
 2.500000  3.100000  0.000000 
 2.500000  3.200000  0.000000 
 2.500000  3.300000  0.000000 
 2.500000  3.400000  0.000000 
 2.500000  3.500000  0.000000 
 2.500000  3.600000  0.000000 
 2.500000  3.700000  0.000000 
 2.500000  3.800000  0.000000 
 2.500000  3.900000  0.000000 
 2.500000  4.000000  0.000000 
 2.500000  4.100000  0.000000 
 2.500000  4.200000  0.000000 
 2.500000  4.300000  0.000000 
 2.500000  4.400000  0.000000 
 2.500000  4.500000  0.000000 
 2.500000  4.600000  0.000000 
 2.500000  4.700000  0.000000 
 2.500000  4.800000  0.000000 
 2.500000  4.900000  0.000000 
 2.400000  5.000000  0.000000 
 2.300000  5.000000  0.000000 
 2.200000  5.000000  0.000000 
 2.100000  5.000000  0.000000 
 2.000000  5.000000  0.000000 
 1.900000  5.000000  0.000000 
 1.800000  5.000000  0.000000 
 1.700000  5.000000  0.000000 
 1.600000  5.000000  0.000000 
 1.500000  5.000000  0.000000 
 1.400000  5.000000  0.000000 
 1.300000  5.000000  0.000000 
 1.200000  5.000000  0.000000 
 1.100000  5.000000  0.000000 
 1.000000  5.000000  0.000000 
 0.900000  5.000000  0.000000 
 0.800000  5.000000  0.000000 
 0.700000  5.000000  0.000000 
 0.600000  5.000000  0.000000 
 0.500000  5.000000  0.000000 
 0.400000  5.000000  0.000000 
 0.300000  5.000000  0.000000 
 0.200000  5.000000  0.000000 
 0.100000  5.000000  0.000000 
 0.000000  5.000000  0.000000 
 -0.100000  5.000000  0.000000 
 -0.200000  5.000000  0.000000 
 -0.300000  5.000000  0.000000 
 -0.400000  5.000000  0.000000 
 -0.500000  5.000000  0.000000 
 -0.600000  5.000000  0.000000 
 -0.700000  5.000000  0.000000 
 -0.800000  5.000000  0.000000 
 -0.900000  5.000000  0.000000 
 -1.000000  5.000000  0.000000 
 -1.100000  5.000000  0.000000 
 -1.200000  5.000000  0.000000 
 -1.300000  5.000000  0.000000 
 -1.400000  5.000000  0.000000 
 -1.500000  5.000000  0.000000 
 -1.600000  5.000000  0.000000 
 -1.700000  5.000000  0.000000 
 -1.800000  5.000000  0.000000 
 -1.900000  5.000000  0.000000 
 -2.000000  5.000000  0.000000 
 -2.100000  5.000000  0.000000 
 -2.200000  5.000000  0.000000 
 -2.300000  5.000000  0.000000 
 -2.400000  5.000000  0.000000 
 -2.500000  4.900000  0.000000 
 -2.500000  4.800000  0.000000 
 -2.500000  4.700000  0.000000 
 -2.500000  4.600000  0.000000 
 -2.500000  4.500000  0.000000 
 -2.500000  4.400000  0.000000 
 -2.500000  4.300000  0.000000 
 -2.500000  4.200000  0.000000 
 -2.500000  4.100000  0.000000 
 -2.500000  4.000000  0.000000 
 -2.500000  3.900000  0.000000 
 -2.500000  3.800000  0.000000 
 -2.500000  3.700000  0.000000 
 -2.500000  3.600000  0.000000 
 -2.500000  3.500000  0.000000 
 -2.500000  3.400000  0.000000 
 -2.500000  3.300000  0.000000 
 -2.500000  3.200000  0.000000 
 -2.500000  3.100000  0.000000 
 -2.500000  3.000000  0.000000 
 -2.500000  2.900000  0.000000 
 -2.500000  2.800000  0.000000 
 -2.500000  2.700000  0.000000 
 -2.500000  2.600000  0.000000 
 -2.500000  2.500000  0.000000 
 -2.500000  2.400000  0.000000 
 -2.500000  2.300000  0.000000 
 -2.500000  2.200000  0.000000 
 -2.500000  2.100000  0.000000 
 -2.500000  2.000000  0.000000 
 -2.500000  1.900000  0.000000 
 -2.500000  1.800000  0.000000 
 -2.500000  1.700000  0.000000 
 -2.500000  1.600000  0.000000 
 -2.500000  1.500000  0.000000 
 -2.500000  1.400000  0.000000 
 -2.500000  1.300000  0.000000 
 -2.500000  1.200000  0.000000 
 -2.500000  1.100000  0.000000 
 -2.500000  1.000000  0.000000 
 -2.500000  0.900000  0.000000 
 -2.500000  0.800000  0.000000 
 -2.500000  0.700000  0.000000 
 -2.500000  0.600000  0.000000 
 -2.500000  0.500000  0.000000 
 -2.500000  0.400000  0.000000 
 -2.500000  0.300000  0.000000 
 -2.500000  0.200000  0.000000 
 -2.500000  0.100000  0.000000 
 -2.400000  0.100000  0.000000 
 -2.400000  0.200000  0.000000 
 -2.400000  0.300000  0.000000 
 -2.400000  0.400000  0.000000 
 -2.400000  0.500000  0.000000 
 -2.400000  0.600000  0.000000 
 -2.400000  0.700000  0.000000 
 -2.400000  0.800000  0.000000 
 -2.400000  0.900000  0.000000 
 -2.400000  1.000000  0.000000 
 -2.400000  1.100000  0.000000 
 -2.400000  1.200000  0.000000 
 -2.400000  1.300000  0.000000 
 -2.400000  1.400000  0.000000 
 -2.400000  1.500000  0.000000 
 -2.400000  1.600000  0.000000 
 -2.400000  1.700000  0.000000 
 -2.400000  1.800000  0.000000 
 -2.400000  1.900000  0.000000 
 -2.400000  2.000000  0.000000 
 -2.400000  2.100000  0.000000 
 -2.400000  2.200000  0.000000 
 -2.400000  2.300000  0.000000 
 -2.400000  2.400000  0.000000 
 -2.400000  2.500000  0.000000 
 -2.400000  2.600000  0.000000 
 -2.400000  2.700000  0.000000 
 -2.400000  2.800000  0.000000 
 -2.400000  2.900000  0.000000 
 -2.400000  3.000000  0.000000 
 -2.400000  3.100000  0.000000 
 -2.400000  3.200000  0.000000 
 -2.400000  3.300000  0.000000 
 -2.400000  3.400000  0.000000 
 -2.400000  3.500000  0.000000 
 -2.400000  3.600000  0.000000 
 -2.400000  3.700000  0.000000 
 -2.400000  3.800000  0.000000 
 -2.400000  3.900000  0.000000 
 -2.400000  4.000000  0.000000 
 -2.400000  4.100000  0.000000 
 -2.400000  4.200000  0.000000 
 -2.400000  4.300000  0.000000 
 -2.400000  4.400000  0.000000 
 -2.400000  4.500000  0.000000 
 -2.400000  4.600000  0.000000 
 -2.400000  4.700000  0.000000 
 -2.400000  4.800000  0.000000 
 -2.400000  4.900000  0.000000 
 -2.300000  0.100000  0.000000 
 -2.300000  0.200000  0.000000 
 -2.300000  0.300000  0.000000 
 -2.300000  0.400000  0.000000 
 -2.300000  0.500000  0.000000 
 -2.300000  0.600000  0.000000 
 -2.300000  0.700000  0.000000 
 -2.300000  0.800000  0.000000 
 -2.300000  0.900000  0.000000 
 -2.300000  1.000000  0.000000 
 -2.300000  1.100000  0.000000 
 -2.300000  1.200000  0.000000 
 -2.300000  1.300000  0.000000 
 -2.300000  1.400000  0.000000 
 -2.300000  1.500000  0.000000 
 -2.300000  1.600000  0.000000 
 -2.300000  1.700000  0.000000 
 -2.300000  1.800000  0.000000 
 -2.300000  1.900000  0.000000 
 -2.300000  2.000000  0.000000 
 -2.300000  2.100000  0.000000 
 -2.300000  2.200000  0.000000 
 -2.300000  2.300000  0.000000 
 -2.300000  2.400000  0.000000 
 -2.300000  2.500000  0.000000 
 -2.300000  2.600000  0.000000 
 -2.300000  2.700000  0.000000 
 -2.300000  2.800000  0.000000 
 -2.300000  2.900000  0.000000 
 -2.300000  3.000000  0.000000 
 -2.300000  3.100000  0.000000 
 -2.300000  3.200000  0.000000 
 -2.300000  3.300000  0.000000 
 -2.300000  3.400000  0.000000 
 -2.300000  3.500000  0.000000 
 -2.300000  3.600000  0.000000 
 -2.300000  3.700000  0.000000 
 -2.300000  3.800000  0.000000 
 -2.300000  3.900000  0.000000 
 -2.300000  4.000000  0.000000 
 -2.300000  4.100000  0.000000 
 -2.300000  4.200000  0.000000 
 -2.300000  4.300000  0.000000 
 -2.300000  4.400000  0.000000 
 -2.300000  4.500000  0.000000 
 -2.300000  4.600000  0.000000 
 -2.300000  4.700000  0.000000 
 -2.300000  4.800000  0.000000 
 -2.300000  4.900000  0.000000 
 -2.200000  0.100000  0.000000 
 -2.200000  0.200000  0.000000 
 -2.200000  0.300000  0.000000 
 -2.200000  0.400000  0.000000 
 -2.200000  0.500000  0.000000 
 -2.200000  0.600000  0.000000 
 -2.200000  0.700000  0.000000 
 -2.200000  0.800000  0.000000 
 -2.200000  0.900000  0.000000 
 -2.200000  1.000000  0.000000 
 -2.200000  1.100000  0.000000 
 -2.200000  1.200000  0.000000 
 -2.200000  1.300000  0.000000 
 -2.200000  1.400000  0.000000 
[...]
POINT_DATA              2601
VECTORS DISPLACEMENT float 
 0.000000  0.000000  0.000000 
 0.000000  0.000000  0.000000 
 0.000000  0.000000  0.000000 
 0.000000  0.000000  0.000000 
 0.000000  0.000000  0.000000 
 0.000000  0.000000  0.000000 
 0.000000  0.000000  0.000000 
 0.000000  0.000000  0.000000 
 0.000000  0.000000  0.000000 
 0.000000  0.000000  0.000000 
 0.000000  0.000000  0.000000 
 0.000000  0.000000  0.000000 
 0.000000  0.000000  0.000000 
 0.000000  0.000000  0.000000 
 0.000000  0.000000  0.000000 
 0.000000  0.000000  0.000000 
 0.000000  0.000000  0.000000 
 0.000000  0.000000  0.000000 
 0.000000  0.000000  0.000000 
 0.000000  0.000000  0.000000 
 0.000000  0.000000  0.000000 
 0.000000  0.000000  0.000000 
 0.000000  0.000000  0.000000 
 0.000000  0.000000  0.000000 
 0.000000  0.000000  0.000000 
 0.000000  0.000000  0.000000 
 0.000000  0.000000  0.000000 
 0.000000  0.000000  0.000000 
 0.000000  0.000000  0.000000 
 0.000000  0.000000  0.000000 
 0.000000  0.000000  0.000000 
 0.000000  0.000000  0.000000 
 0.000000  0.000000  0.000000 
 0.000000  0.000000  0.000000 
 0.000000  0.000000  0.000000 
 0.000000  0.000000  0.000000 
 0.000000  0.000000  0.000000 
 0.000000  0.000000  0.000000 
 0.000000  0.000000  0.000000 
 0.000000  0.000000  0.000000 
 0.000000  0.000000  0.000000 
 0.000000  0.000000  0.000000 
 0.000000  0.000000  0.000000 
 0.000000  0.000000  0.000000 
 0.000000  0.000000  0.000000 
 0.000000  0.000000  0.000000 
 0.000000  0.000000  0.000000 
 0.000000  0.000000  0.000000 
 0.000000  0.000000  0.000000 
 0.000000  0.000000  0.000000 
 0.000000  0.000000  0.000000 
 0.000000  0.000000  0.000000 
 0.000000  0.000000  0.000000 
 0.000000  0.000000  -0.000000 
 0.000000  0.000000  -0.000000 
 0.000000  0.000000  0.000000 
 0.000000  0.000000  0.000001 
 0.000000  0.000000  0.000000 
 0.000000  0.000000  -0.000001 
 0.000000  0.000000  -0.000001 
 0.000000  0.000000  0.000000 
 0.000000  0.000000  0.000006 
 0.000000  0.000000  0.000355 
 0.000000  0.000000  0.010086 
 0.000000  0.000000  0.111355 
 0.000000  0.000000  0.405723 
 0.000000  0.000000  0.120539 
 0.000000  0.000000  -0.935114 
 0.000000  0.000000  -0.418856 
 0.000000  0.000000  0.429781 
 0.000000  0.000000  0.238996 
 0.000000  0.000000  0.035180 
 0.000000  0.000000  0.001908 
 0.000000  0.000000  0.000041 
 0.000000  0.000000  0.000000 
 0.000000  0.000000  0.000000 
 0.000000  0.000000  0.000000 
 0.000000  0.000000  0.000000 
 0.000000  0.000000  -0.000000 
 0.000000  0.000000  -0.000000 
 0.000000  0.000000  -0.000000 
 0.000000  0.000000  0.000000 
 0.000000  0.000000  0.000000 
 0.000000  0.000000  0.000000 
 0.000000  0.000000  -0.000000 
 0.000000  0.000000  -0.000000 
 0.000000  0.000000  0.000000 
 0.000000  0.000000  0.000000 
 0.000000  0.000000  0.000000 
 0.000000  0.000000  -0.000000 
 0.000000  0.000000  -0.000000 
 0.000000  0.000000  0.000000 
 0.000000  0.000000  0.000000 
 0.000000  0.000000  0.000000 
 0.000000  0.000000  -0.000000 
 0.000000  0.000000  -0.000000 
 0.000000  0.000000  0.000000 
 0.000000  0.000000  0.000000 
 0.000000  0.000000  0.000000 
 0.000000  0.000000  -0.000000 
 0.000000  0.000000  -0.000000 
 0.000000  0.000000  0.000000 
 0.000000  0.000000  0.000000 
 0.000000  0.000000  0.000000 
 0.000000  0.000000  0.000000 
 0.000000  0.000000  0.000000 
 0.000000  0.000000  0.000000 
 0.000000  0.000000  0.000000 
 0.000000  0.000000  0.000000 
 0.000000  0.000000  0.000000 
 0.000000  0.000000  0.000000 
 0.000000  0.000000  0.000000 
 0.000000  0.000000  0.000000 
 0.000000  0.000000  0.000000 
 0.000000  0.000000  0.000000 
 0.000000  0.000000  0.000000 
 0.000000  0.000000  0.000000 
 0.000000  0.000000  0.000000 
 0.000000  0.000000  0.000000 
 0.000000  0.000000  0.000000 
 0.000000  0.000000  0.000000 
 0.000000  0.000000  0.000000 
 0.000000  0.000000  0.000000 
 0.000000  0.000000  0.000000 
 0.000000  0.000000  0.000000 
 0.000000  0.000000  0.000000 
 0.000000  0.000000  0.000000 
 0.000000  0.000000  0.000000 
 0.000000  0.000000  0.000000 
 0.000000  0.000000  0.000000 
 0.000000  0.000000  0.000000 
 0.000000  0.000000  0.000000 
 0.000000  0.000000  0.000000 
 0.000000  0.000000  0.000000 
 0.000000  0.000000  0.000000 
 0.000000  0.000000  0.000000 
 0.000000  0.000000  0.000000 
 0.000000  0.000000  0.000000 
 0.000000  0.000000  0.000000 
 0.000000  0.000000  0.000000 
 0.000000  0.000000  0.000000 
 0.000000  0.000000  0.000000 
 0.000000  0.000000  0.000000 
 0.000000  0.000000  0.000000 
 0.000000  0.000000  0.000000 
 0.000000  0.000000  0.000000 
 0.000000  0.000000  0.000000 
 0.000000  0.000000  0.000000 
 0.000000  0.000000  0.000000 
 0.000000  0.000000  0.000000 
 0.000000  0.000000  0.000000 
 0.000000  0.000000  0.000000 
 0.000000  0.000000  -0.000000 
 0.000000  0.000000  -0.000000 
 0.000000  0.000000  0.000000 
 0.000000  0.000000  0.000000 
 0.000000  0.000000  0.000000 
 0.000000  0.000000  -0.000000 
 0.000000  0.000000  -0.000000 
 0.000000  0.000000  0.000000 
 0.000000  0.000000  0.000000 
 0.000000  0.000000  0.000000 
 0.000000  0.000000  -0.000000 
 0.000000  0.000000  -0.000000 
 0.000000  0.000000  0.000000 
 0.000000  0.000000  0.000000 
 0.000000  0.000000  0.000000 
 0.000000  0.000000  -0.000000 
 0.000000  0.000000  -0.000000 
 0.000000  0.000000  0.000000 
 0.000000  0.000000  0.000000 
 0.000000  0.000000  0.000000 
 0.000000  0.000000  -0.000000 
 0.000000  0.000000  -0.000000 
 0.000000  0.000000  -0.000000 
 0.000000  0.000000  0.000000 
 0.000000  0.000000  0.000000 
 0.000000  0.000000  0.000000 
 0.000000  0.000000  0.000000 
 0.000000  0.000000  0.000041 
 0.000000  0.000000  0.001908 
 0.000000  0.000000  0.035180 
 0.000000  0.000000  0.238996 
 0.000000  0.000000  0.429781 
 0.000000  0.000000  -0.418856 
 0.000000  0.000000  -0.935114 
 0.000000  0.000000  0.120539 
 0.000000  0.000000  0.405723 
 0.000000  0.000000  0.111355 
 0.000000  0.000000  0.010086 
 0.000000  0.000000  0.000355 
 0.000000  0.000000  0.000006 
 0.000000  0.000000  0.000000 
 0.000000  0.000000  -0.000001 
 0.000000  0.000000  -0.000001 
 0.000000  0.000000  0.000000 
 0.000000  0.000000  0.000001 
 0.000000  0.000000  0.000000 
 0.000000  0.000000  -0.000000 
 0.000000  0.000000  -0.000000 
 0.000000  0.000000  -0.000000 
 0.000000  0.000000  -0.000000 
 0.000000  0.000000  0.000000 
 0.000000  0.000000  0.000001 
 0.000000  0.000000  0.000000 
 0.000000  0.000000  -0.000001 
 0.000000  0.000000  -0.000001 
 0.000000  0.000000  0.000000 
 0.000000  0.000000  0.000006 
 0.000000  0.000000  0.000355 
 0.000000  0.000000  0.010086 
 0.000000  0.000000  0.111355 
 0.000000  0.000000  0.405723 
 0.000000  0.000000  0.120539 
 0.000000  0.000000  -0.935114 
 0.000000  0.000000  -0.418856 
 0.000000  0.000000  0.429781 
 0.000000  0.000000  0.238996 
 0.000000  0.000000  0.035180 
 0.000000  0.000000  0.001908 
 0.000000  0.000000  0.000041 
 0.000000  0.000000  0.000000 
 0.000000  0.000000  0.000000 
 0.000000  0.000000  0.000000 
 0.000000  0.000000  0.000000 
 0.000000  0.000000  -0.000000 
 0.000000  0.000000  -0.000000 
 0.000000  0.000000  -0.000000 
 0.000000  0.000000  0.000000 
 0.000000  0.000000  0.000000 
 0.000000  0.000000  0.000000 
 0.000000  0.000000  -0.000000 
 0.000000  0.000000  -0.000000 
 0.000000  0.000000  0.000000 
 0.000000  0.000000  0.000000 
 0.000000  0.000000  0.000000 
 0.000000  0.000000  -0.000000 
 0.000000  0.000000  -0.000000 
 0.000000  0.000000  0.000000 
 0.000000  0.000000  0.000000 
 0.000000  0.000000  0.000000 
 0.000000  0.000000  -0.000000 
 0.000000  0.000000  -0.000000 
 0.000000  0.000000  0.000000 
 0.000000  0.000000  0.000000 
 0.000000  0.000000  0.000000 
 0.000000  0.000000  -0.000000 
 0.000000  0.000000  -0.000000 
 0.000000  0.000000  0.000000 
 0.000000  0.000000  -0.000000 
 0.000000  0.000000  -0.000000 
 0.000000  0.000000  0.000000 
 0.000000  0.000000  0.000001 
 0.000000  0.000000  0.000000 
 0.000000  0.000000  -0.000001 
 0.000000  0.000000  -0.000001 
 0.000000  0.000000  0.000000 
 0.000000  0.000000  0.000006 
 0.000000  0.000000  0.000355 
 0.000000  0.000000  0.010086 
 0.000000  0.000000  0.111355 
 0.000000  0.000000  0.405723 
 0.000000  0.000000  0.120539 
 0.000000  0.000000  -0.935114 
 0.000000  0.000000  -0.418856 
 0.000000  0.000000  0.429781 
 0.000000  0.000000  0.238996 
 0.000000  0.000000  0.035180 
 0.000000  0.000000  0.001908 
 0.000000  0.000000  0.000041 
 0.000000  0.000000  0.000000 
 0.000000  0.000000  0.000000 
 0.000000  0.000000  0.000000 
 0.000000  0.000000  0.000000 
 0.000000  0.000000  -0.000000 
 0.000000  0.000000  -0.000000 
 0.000000  0.000000  -0.000000 
 0.000000  0.000000  0.000000 
 0.000000  0.000000  0.000000 
 0.000000  0.000000  0.000000 
 0.000000  0.000000  -0.000000 
 0.000000  0.000000  -0.000000 
 0.000000  0.000000  0.000000 
 0.000000  0.000000  0.000000 
 0.000000  0.000000  0.000000 
 0.000000  0.000000  -0.000000 
 0.000000  0.000000  -0.000000 
 0.000000  0.000000  0.000000 
 0.000000  0.000000  0.000000 
 0.000000  0.000000  0.000000 
 0.000000  0.000000  -0.000000 
 0.000000  0.000000  -0.000000 
 0.000000  0.000000  0.000000 
 0.000000  0.000000  0.000000 
 0.000000  0.000000  0.000000 
 0.000000  0.000000  -0.000000 
 0.000000  0.000000  -0.000000 
 0.000000  0.000000  0.000000 
 0.000000  0.000000  -0.000000 
 0.000000  0.000000  -0.000000 
 0.000000  0.000000  0.000000 
 0.000000  0.000000  0.000001 
 0.000000  0.000000  0.000000 
 0.000000  0.000000  -0.000001 
 0.000000  0.000000  -0.000001 
 0.000000  0.000000  0.000000 
 0.000000  0.000000  0.000006 
 0.000000  0.000000  0.000355 
 0.000000  0.000000  0.010086 
 0.000000  0.000000  0.111355 
 0.000000  0.000000  0.405723 
 0.000000  0.000000  0.120539 
 0.000000  0.000000  -0.935114 
 0.000000  0.000000  -0.418856 
 0.000000  0.000000  0.429781 
 0.000000  0.000000  0.238996 
 0.000000  0.000000  0.035180 
 0.000000  0.000000  0.001908 
 0.000000  0.000000  0.000041 
 0.000000  0.000000  0.000000 
 0.000000  0.000000  0.000000 
 0.000000  0.000000  0.000000 
 0.000000  0.000000  0.000000 
 0.000000  0.000000  -0.000000 
 0.000000  0.000000  -0.000000 
 0.000000  0.000000  -0.000000 
 0.000000  0.000000  0.000000 
 0.000000  0.000000  0.000000 
 0.000000  0.000000  0.000000 
 0.000000  0.000000  -0.000000 
 0.000000  0.000000  -0.000000 
 0.000000  0.000000  0.000000 
 0.000000  0.000000  0.000000 
 0.000000  0.000000  0.000000 
 0.000000  0.000000  -0.000000 
 0.000000  0.000000  -0.000000 
 0.000000  0.000000  0.000000 
 0.000000  0.000000  0.000000 
 0.000000  0.000000  0.000000 
 0.000000  0.000000  -0.000000 
 0.000000  0.000000  -0.000000 
 0.000000  0.000000  0.000000 
 0.000000  0.000000  0.000000 
 0.000000  0.000000  0.000000 
 0.000000  0.000000  -0.000000 
 0.000000  0.000000  -0.000000 
 0.000000  0.000000  0.000000 
 0.000000  0.000000  -0.000000 
 0.000000  0.000000  -0.000000 
 0.000000  0.000000  0.000000 
 0.000000  0.000000  0.000001 
 0.000000  0.000000  0.000000 
 0.000000  0.000000  -0.000001 
 0.000000  0.000000  -0.000001 
 0.000000  0.000000  0.000000 
 0.000000  0.000000  0.000006 
 0.000000  0.000000  0.000355 
 0.000000  0.000000  0.010086 
 0.000000  0.000000  0.111355 
 0.000000  0.000000  0.405723 
 0.000000  0.000000  0.120539 
 0.000000  0.000000  -0.935114 
 0.000000  0.000000  -0.418856 
 0.000000  0.000000  0.429781 
 0.000000  0.000000  0.238996 
 0.000000  0.000000  0.035180 
 0.000000  0.000000  0.001908 
 0.000000  0.000000  0.000041 
 0.000000  0.000000  0.000000 
 0.000000  0.000000  0.000000 
 0.000000  0.000000  0.000000 
 0.000000  0.000000  0.000000 
 0.000000  0.000000  -0.000000 
 0.000000  0.000000  -0.000000 
 0.000000  0.000000  -0.000000 
 0.000000  0.000000  0.000000 
 0.000000  0.000000  0.000000 
 0.000000  0.000000  0.000000 
 0.000000  0.000000  -0.000000 
 0.000000  0.000000  -0.000000 
 0.000000  0.000000  0.000000 
 0.000000  0.000000  0.000000 
 0.000000  0.000000  0.000000 
 0.000000  0.000000  -0.000000 
 0.000000  0.000000  -0.000000 
 0.000000  0.000000  0.000000 
 0.000000  0.000000  0.000000 
 0.000000  0.000000  0.000000 
 0.000000  0.000000  -0.000000 
 0.000000  0.000000  -0.000000 
 0.000000  0.000000  0.000000 
 0.000000  0.000000  0.000000 
 0.000000  0.000000  0.000000 
 0.000000  0.000000  -0.000000 
 0.000000  0.000000  -0.000000 
 0.000000  0.000000  0.000000 
 0.000000  0.000000  -0.000000 
 0.000000  0.000000  -0.000000 
 0.000000  0.000000  0.000000 
 0.000000  0.000000  0.000001 
 0.000000  0.000000  0.000000 
 0.000000  0.000000  -0.000001 
 0.000000  0.000000  -0.000001 
 0.000000  0.000000  0.000000 
 0.000000  0.000000  0.000006 
 0.000000  0.000000  0.000355 
 0.000000  0.000000  0.010086 
 0.000000  0.000000  0.111355 
 0.000000  0.000000  0.405723 
 0.000000  0.000000  0.120539 
 0.000000  0.000000  -0.935114 
 0.000000  0.000000  -0.418856 
 0.000000  0.000000  0.429781 
 0.000000  0.000000  0.238996 
 0.000000  0.000000  0.035180 
 0.000000  0.000000  0.001908 
 0.000000  0.000000  0.000041 
 0.000000  0.000000  0.000000 
 0.000000  0.000000  0.000000 
 0.000000  0.000000  0.000000 
 0.000000  0.000000  0.000000 
 0.000000  0.000000  -0.000000 
 0.000000  0.000000  -0.000000 
 0.000000  0.000000  -0.000000 
 0.000000  0.000000  0.000000 
 0.000000  0.000000  0.000000 
 0.000000  0.000000  0.000000 
 0.000000  0.000000  -0.000000 
 0.000000  0.000000  -0.000000 
 0.000000  0.000000  0.000000 
 0.000000  0.000000  0.000000 
 0.000000  0.000000  0.000000 
 0.000000  0.000000  -0.000000 
 0.000000  0.000000  -0.000000 
 0.000000  0.000000  0.000000 
 0.000000  0.000000  0.000000 
 0.000000  0.000000  0.000000 
 0.000000  0.000000  -0.000000 
 0.000000  0.000000  -0.000000 
 0.000000  0.000000  0.000000 
 0.000000  0.000000  0.000000 
 0.000000  0.000000  0.000000 
 0.000000  0.000000  -0.000000 
 0.000000  0.000000  -0.000000 
 0.000000  0.000000  0.000000 
 0.000000  0.000000  -0.000000 
 0.000000  0.000000  -0.000000 
 0.000000  0.000000  0.000000 
 0.000000  0.000000  0.000001 
 0.000000  0.000000  0.000000 
 0.000000  0.000000  -0.000001 
 0.000000  0.000000  -0.000001 
 0.000000  0.000000  0.000000 
 0.000000  0.000000  0.000006 
 0.000000  0.000000  0.000355 
 0.000000  0.000000  0.010086 
 0.000000  0.000000  0.111355 
 0.000000  0.000000  0.405723 
 0.000000  0.000000  0.120539 
 0.000000  0.000000  -0.935114 
 0.000000  0.000000  -0.418856 
 0.000000  0.000000  0.429781 
 0.000000  0.000000  0.238996 
 0.000000  0.000000  0.035180 
 0.000000  0.000000  0.001908 
 0.000000  0.000000  0.000041 
 0.000000  0.000000  0.000000 
 0.000000  0.000000  0.000000 
 0.000000  0.000000  0.000000 
 0.000000  0.000000  0.000000 
 0.000000  0.000000  -0.000000 
 0.000000  0.000000  -0.000000 
 0.000000  0.000000  -0.000000 
 0.000000  0.000000  0.000000 
 0.000000  0.000000  0.000000 
 0.000000  0.000000  0.000000 
 0.000000  0.000000  -0.000000 
 0.000000  0.000000  -0.000000 
 0.000000  0.000000  0.000000 
 0.000000  0.000000  0.000000 
 0.000000  0.000000  0.000000 
 0.000000  0.000000  -0.000000 
 0.000000  0.000000  -0.000000 
 0.000000  0.000000  0.000000 
 0.000000  0.000000  0.000000 
 0.000000  0.000000  0.000000 
 0.000000  0.000000  -0.000000 
 0.000000  0.000000  -0.000000 
 0.000000  0.000000  0.000000 
 0.000000  0.000000  0.000000 
 0.000000  0.000000  0.000000 
 0.000000  0.000000  -0.000000 
 0.000000  0.000000  -0.000000 
 0.000000  0.000000  0.000000 
 0.000000  0.000000  -0.000000 
 0.000000  0.000000  -0.000000 
 0.000000  0.000000  0.000000 
 0.000000  0.000000  0.000001 
 0.000000  0.000000  0.000000 
 0.000000  0.000000  -0.000001 
 0.000000  0.000000  -0.000001 
 0.000000  0.000000  0.000000 
 0.000000  0.000000  0.000006 
 0.000000  0.000000  0.000355 
 0.000000  0.000000  0.010086 
 0.000000  0.000000  0.111355 
 0.000000  0.000000  0.405723 
 0.000000  0.000000  0.120539 
 0.000000  0.000000  -0.935114 
 0.000000  0.000000  -0.418856 
 0.000000  0.000000  0.429781 
 0.000000  0.000000  0.238996 
 0.000000  0.000000  0.035180 
 0.000000  0.000000  0.001908 
 0.000000  0.000000  0.000041 
 0.000000  0.000000  0.000000 
 0.000000  0.000000  0.000000 
 0.000000  0.000000  0.000000 
 0.000000  0.000000  0.000000 
 0.000000  0.000000  -0.000000 
 0.000000  0.000000  -0.000000 
 0.000000  0.000000  -0.000000 
 0.000000  0.000000  0.000000 
 0.000000  0.000000  0.000000 
 0.000000  0.000000  0.000000 
 0.000000  0.000000  -0.000000 
 0.000000  0.000000  -0.000000 
 0.000000  0.000000  0.000000 
 0.000000  0.000000  0.000000 
 0.000000  0.000000  0.000000 
 0.000000  0.000000  -0.000000 
 0.000000  0.000000  -0.000000 
 0.000000  0.000000  0.000000 
 0.000000  0.000000  0.000000 
 0.000000  0.000000  0.000000 
 0.000000  0.000000  -0.000000 
 0.000000  0.000000  -0.000000 
 0.000000  0.000000  0.000000 
 0.000000  0.000000  0.000000 
 0.000000  0.000000  0.000000 
 0.000000  0.000000  -0.000000 
 0.000000  0.000000  -0.000000 
 0.000000  0.000000  0.000000 
 0.000000  0.000000  -0.000000 
 0.000000  0.000000  -0.000000 
 0.000000  0.000000  0.000000 
 0.000000  0.000000  0.000001 
 0.000000  0.000000  0.000000 
 0.000000  0.000000  -0.000001 
 0.000000  0.000000  -0.000001 
 0.000000  0.000000  0.000000 
 0.000000  0.000000  0.000006 
 0.000000  0.000000  0.000355 
 0.000000  0.000000  0.010086 
 0.000000  0.000000  0.111355 
 0.000000  0.000000  0.405723 
 0.000000  0.000000  0.120539 
 0.000000  0.000000  -0.935114 
 0.000000  0.000000  -0.418856 
 0.000000  0.000000  0.429781 
 0.000000  0.000000  0.238996 
 0.000000  0.000000  0.035180 
 0.000000  0.000000  0.001908 
 0.000000  0.000000  0.000041 
 0.000000  0.000000  0.000000 
 0.000000  0.000000  0.000000 
 0.000000  0.000000  0.000000 
 0.000000  0.000000  0.000000 
 0.000000  0.000000  -0.000000 
 0.000000  0.000000  -0.000000 
 0.000000  0.000000  -0.000000 
 0.000000  0.000000  0.000000 
 0.000000  0.000000  0.000000 
 0.000000  0.000000  0.000000 
 0.000000  0.000000  -0.000000 
 0.000000  0.000000  -0.000000 
 0.000000  0.000000  0.000000 
 0.000000  0.000000  0.000000 
 0.000000  0.000000  0.000000 
 0.000000  0.000000  -0.000000 
 0.000000  0.000000  -0.000000 
 0.000000  0.000000  0.000000 
 0.000000  0.000000  0.000000 
 0.000000  0.000000  0.000000 
 0.000000  0.000000  -0.000000 
 0.000000  0.000000  -0.000000 
 0.000000  0.000000  0.000000 
 0.000000  0.000000  0.000000 
 0.000000  0.000000  0.000000 
 0.000000  0.000000  -0.000000 
 0.000000  0.000000  -0.000000 
 0.000000  0.000000  0.000000 
 0.000000  0.000000  -0.000000 
 0.000000  0.000000  -0.000000 
 0.000000  0.000000  0.000000 
 0.000000  0.000000  0.000001 
 0.000000  0.000000  0.000000 
 0.000000  0.000000  -0.000001 
 0.000000  0.000000  -0.000001 
 0.000000  0.000000  0.000000 
 0.000000  0.000000  0.000006 
 0.000000  0.000000  0.000355 
 0.000000  0.000000  0.010086 
 0.000000  0.000000  0.111355 
 0.000000  0.000000  0.405723 
 0.000000  0.000000  0.120539 
 0.000000  0.000000  -0.935114 
 0.000000  0.000000  -0.418856 
 0.000000  0.000000  0.429781 
 0.000000  0.000000  0.238996 
 0.000000  0.000000  0.035180 
 0.000000  0.000000  0.001908 
 0.000000  0.000000  0.000041 
 0.000000  0.000000  0.000000 
 0.000000  0.000000  0.000000 
 0.000000  0.000000  0.000000 
 0.000000  0.000000  0.000000 
 0.000000  0.000000  -0.000000 
 0.000000  0.000000  -0.000000 
 0.000000  0.000000  -0.000000 
 0.000000  0.000000  0.000000 
 0.000000  0.000000  0.000000 
 0.000000  0.000000  0.000000 
 0.000000  0.000000  -0.000000 
 0.000000  0.000000  -0.000000 
 0.000000  0.000000  0.000000 
 0.000000  0.000000  0.000000 
 0.000000  0.000000  0.000000 
 0.000000  0.000000  -0.000000 
 0.000000  0.000000  -0.000000 
 0.000000  0.000000  0.000000 
 0.000000  0.000000  0.000000 
 0.000000  0.000000  0.000000 
 0.000000  0.000000  -0.000000 
 0.000000  0.000000  -0.000000 
 0.000000  0.000000  0.000000 
 0.000000  0.000000  0.000000 